ITEM: TIMESTEP
0
ITEM: NUMBER OF ATOMS
27
ITEM: BOX BOUNDS pp pp pp
0.0000000000000000e+00 1.2299999999999999e+01
0.0000000000000000e+00 1.2299999999999999e+01
0.0000000000000000e+00 1.2299999999999999e+01
ITEM: ATOMS v_ferrx v_ferry v_ferrz v_fnumx v_fnumy v_fnumz fx fy fz
-6.19951e-11 -7.58713e-11 1.0302e-10 -0.042581 -0.0447679 -0.0182386 -0.042581 -0.0447679 -0.0182386
-1.15324e-09 -6.83069e-10 -1.11442e-09 -0.0685422 -0.0250869 -0.00250979 -0.0685422 -0.0250869 -0.00250979
-1.31218e-11 7.08604e-11 -3.40421e-11 -0.0373417 -0.0419013 -0.0383014 -0.0373417 -0.0419013 -0.0383014
4.8847e-10 6.83388e-11 -5.1978e-10 -0.00624131 -0.0747882 -0.0242476 -0.00624131 -0.0747882 -0.0242476
-9.74319e-11 6.80062e-12 -1.05518e-11 -0.0269083 -0.0406272 -0.0692912 -0.0269083 -0.0406272 -0.0692912
5.19803e-10 1.0873e-10 3.74081e-11 -0.0460113 -0.0261854 -0.0573406 -0.0460113 -0.0261854 -0.0573406
3.74026e-11 -1.00672e-11 7.25404e-11 -0.00952708 -0.0376781 -0.0198265 -0.00952708 -0.0376781 -0.0198265
2.87645e-10 -2.22802e-11 1.15998e-09 -0.0345894 -0.0559887 -0.0909081 -0.0345894 -0.0559887 -0.0909081
3.4453e-10 -5.8103e-10 -3.43775e-10 -0.0727851 -0.0172051 -0.048487 -0.0727851 -0.0172051 -0.048487
7.45302e-10 1.12808e-09 8.00453e-10 -0.00887339 -0.0819892 -0.0174709 -0.00887339 -0.0819892 -0.0174709
6.31626e-10 -1.02371e-09 8.11185e-10 -0.0560607 -0.0364868 -0.0201497 -0.0560607 -0.0364868 -0.0201497
3.41092e-10 1.63982e-10 6.13433e-11 -0.0175509 -0.00722611 -0.0433399 -0.0175509 -0.00722611 -0.0433399
-4.26137e-11 -4.01836e-11 -1.33615e-11 -0.0280835 -0.037304 -0.0114681 -0.0280835 -0.037304 -0.0114681
1.10312e-10 3.10779e-10 9.48799e-12 -0.0347123 -0.0446915 -0.0556344 -0.0347123 -0.0446915 -0.0556344
-1.11901e-10 -3.10003e-10 1.14926e-11 -0.0675452 0.00910991 -0.0169141 -0.0675452 0.00910991 -0.0169141
1.26165e-10 -2.15417e-11 1.26727e-10 -0.0247542 -0.0378673 -0.00845793 -0.0247542 -0.0378673 -0.00845793
-9.67592e-11 -1.15635e-11 6.50399e-11 -0.036231 -0.0133096 -0.0199342 -0.036231 -0.0133096 -0.0199342
4.18669e-10 -4.19505e-11 1.85127e-10 -0.0530658 0.00729906 -0.0337315 -0.0530658 0.00729906 -0.0337315
-6.6372e-11 -8.01041e-11 -6.00919e-11 -0.0149293 -0.0404705 -0.00540582 -0.0149293 -0.0404705 -0.00540582
-3.02678e-10 -1.42272e-10 -5.45316e-10 -0.0264333 -0.0376757 -0.0167649 -0.0264333 -0.0376757 -0.0167649
1.52977e-09 -6.56218e-09 -4.88754e-09 0.00649436 0.0262364 -0.149893 0.00649436 0.0262364 -0.149893
5.2414e-11 -1.16705e-10 3.04346e-11 -0.0457751 -0.0610119 -0.00380956 -0.0457751 -0.0610119 -0.00380956
7.04813e-11 -6.09063e-11 1.59339e-11 -0.0413175 -0.0512686 -0.0361505 -0.0413175 -0.0512686 -0.0361505
-1.61692e-10 -1.21797e-10 -1.59258e-10 -0.0362753 -0.00313249 -0.036646 -0.0362753 -0.00313249 -0.036646
4.09459e-10 5.84354e-10 -9.71514e-11 -0.0335889 -0.0837681 -0.00491028 -0.0335889 -0.0837681 -0.00491028
9.99178e-10 2.2583e-10 4.27024e-10 -0.0840318 -0.0736804 -0.0219763 -0.0840318 -0.0736804 -0.0219763
1.04547e-11 -2.77425e-10 2.3405e-10 -0.0296852 -0.00747613 -0.0777974 -0.0296852 -0.00747613 -0.0777974
