LAMMPS (15 Jun 2023 - Development - 67ab67281f-modified)
Lattice spacing in x,y,z = 3.316 3.316 3.316
Created orthogonal box = (0 0 0) to (3.316 3.316 3.316)
  1 by 1 by 1 MPI processor grid
Created 2 atoms
  using lattice units in orthogonal box = (0 0 0) to (3.316 3.316 3.316)
  create_atoms CPU = 0.000 seconds
2 atoms in group acegroup
Generated 0 of 0 mixed pair_coeff terms from geometric mixing rule
Neighbor list info ...
  update: every = 1 steps, delay = 0 steps, check = yes
  max neighbors/atom: 2000, page size: 100000
  master list distance cutoff = 6.3
  ghost atom cutoff = 6.3
  binsize = 3.15, bins = 2 2 2
  1 neighbor lists, perpetual/occasional/extra = 1 0 0
  (1) pair zero, perpetual
      attributes: half, newton on
      pair build: half/bin/atomonly/newton
      stencil: half/bin/3d
      bin: standard
Setting up Verlet run ...
  Unit style    : metal
  Current step  : 0
  Time step     : 0.0005
Per MPI rank memory allocation (min/avg/max) = 3.461 | 3.461 | 3.461 Mbytes
   Step          Temp          PotEng         TotEng         Press         c_favsq    
         0   0.001          0              1.2926015e-07  0.0037865193   0.020190444  
         1   0.049560409    0              6.4061857e-06 -37534.664      0.38601429   
         2   0.41078254     0              5.3097811e-05 -37530.036      0.38603065   
         3   1.1226313      0              0.00014511149 -37520.969      0.38606229   
         4   2.1851573      0              0.00028245375 -37507.462      0.38610921   
         5   3.5984363      0              0.0004651344  -37489.514      0.3861714    
         6   5.3625694      0              0.0006931665  -37467.124      0.38624887   
         7   7.477683       0              0.00096656639 -37440.291      0.38634162   
         8   9.9942666      0              0.0012918603  -38715.12       0.41625157   
         9   13.940458      0              0.0018019456  -181074.17      25.704824    
        10   27.882746      0              0.0036041278  -150546.22      13.790936    
Loop time of 0.212751 on 1 procs for 10 steps with 2 atoms

Performance: 2.031 ns/day, 11.819 hours/ns, 47.003 timesteps/s, 94.007 atom-step/s
96.6% CPU use with 1 MPI tasks x no OpenMP threads

MPI task timing breakdown:
Section |  min time  |  avg time  |  max time  |%varavg| %total
---------------------------------------------------------------
Pair    | 1.1821e-05 | 1.1821e-05 | 1.1821e-05 |   0.0 |  0.01
Neigh   | 0          | 0          | 0          |   0.0 |  0.00
Comm    | 1.9471e-05 | 1.9471e-05 | 1.9471e-05 |   0.0 |  0.01
Output  | 0.10673    | 0.10673    | 0.10673    |   0.0 | 50.17
Modify  | 0.10597    | 0.10597    | 0.10597    |   0.0 | 49.81
Other   |            | 2.236e-05  |            |       |  0.01

Nlocal:              2 ave           2 max           2 min
Histogram: 1 0 0 0 0 0 0 0 0 0
Nghost:            187 ave         187 max         187 min
Histogram: 1 0 0 0 0 0 0 0 0 0
Neighs:             58 ave          58 max          58 min
Histogram: 1 0 0 0 0 0 0 0 0 0

Total # of neighbors = 58
Ave neighs/atom = 29
Neighbor list builds = 0
Dangerous builds = 0
last step average square force 13.7909357177282
Total wall time: 0:00:00
